"Compound name","Smiles","logkp (cm/s)","skin source type","skin source site","used layer","skin preparation","storage temperature (°C)","storage duration (days)","neat","donor/skin surface temperature (°C)","donor pH","donor type","acceptor temperature (°C)","acceptor pH","acceptor type","cell type","reference","DOI","LogP","molecular weight"
Testosterone,O=C1CC[C@]2(C(=C1)CC[C@@H]1[C@@H]2CC[C@]2([C@H]1CC[C@@H]2O)C)C,-5.476,Cadaver,abdomen,"epidermis, dermis",unknown,-30,unknown,0,37,6,PBS,37,unknown,"NaCl, sodium azide, acetone",Flow through cell,"Sznitowska, 2001",10.1016/s0168-3659(01)00443-6,3.8792000000000026,288.208930136
Testosterone,O=C1CC[C@]2(C(=C1)CC[C@@H]1[C@@H]2CC[C@]2([C@H]1CC[C@@H]2O)C)C,-5.489,Cadaver,abdomen,"epidermis, dermis",unknown,-30,unknown,0,37,11,PBS,37,unknown,"NaCl, sodium azide, acetone",Flow through cell,"Sznitowska, 2001",10.1016/s0168-3659(01)00443-6,3.8792000000000026,288.208930136
Testosterone,O=C1CC[C@]2(C(=C1)CC[C@@H]1[C@@H]2CC[C@]2([C@H]1CC[C@@H]2O)C)C,-5.476,Cadaver,abdomen,"epidermis, dermis",unknown,-30,unknown,0,37,1,"HCl/NaOH, KCl",37,unknown,"NaCl, sodium azide, acetone",Flow through cell,"Sznitowska, 2001",10.1016/s0168-3659(01)00443-6,3.8792000000000026,288.208930136
Testosterone,O=C1CC[C@]2(C(=C1)CC[C@@H]1[C@@H]2CC[C@]2([C@H]1CC[C@@H]2O)C)C,-5.596,Cadaver,abdomen,"epidermis, dermis",unknown,-30,unknown,0,37,2,"HCl/NaOH, KCl",37,unknown,"NaCl, sodium azide, acetone",Flow through cell,"Sznitowska, 2001",10.1016/s0168-3659(01)00443-6,3.8792000000000026,288.208930136
Testosterone,O=C1CC[C@]2(C(=C1)CC[C@@H]1[C@@H]2CC[C@]2([C@H]1CC[C@@H]2O)C)C,-4.945,Cadaver,abdomen,"epidermis, dermis",unknown,-30,unknown,0,37,12,"HCl/NaOH, KCl",37,unknown,"NaCl, sodium azide, acetone",Flow through cell,"Sznitowska, 2001",10.1016/s0168-3659(01)00443-6,3.8792000000000026,288.208930136
Boric acid,OB(O)O,-7.199,Cadaver,thigh,"epidermis, dermis",dermatomed 500um,1,5,0,32,unknown,Water,unknown,unknown,PBS,Flow through cell,"Wester, 1998",10.1006/toxs.1998.2490,-2.0518,62.017524355999996
Borax,[O-]B1OB2OB(OB(O1)O2)[O-].[Na+].[Na+],-7.326,Cadaver,thigh,"epidermis, dermis",dermatomed 500um,1,5,0,32,unknown,Water,unknown,unknown,PBS,Flow through cell,"Wester, 1998",10.1006/toxs.1998.2490,-10.2352,201.98116249999998
Disodium octaborate tetrahydrate,[O-]B([O-])[O-].[O-]B([O-])[O-].[O-]B([O-])[O-].[O-]B([O-])[O-].[O-]B([O-])[O-].[O-]B([O-])[O-].[O-]B([O-])[O-].[O-]B([O-])[O-].O.O.O.O.[Na+].[Na+],-7.653,Cadaver,thigh,"epidermis, dermis",dermatomed 500um,1,5,0,32,unknown,Water,unknown,unknown,PBS,Flow through cell,"Wester, 1998",10.1006/toxs.1998.2490,-40.87319999999999,589.98626013402
Glyphosate,OC(=O)CNCP(=O)(O)O,-6.894,Cadaver,unknown,"epidermis, dermis",dermatomed 1000um,unknown,unknown,0,37,unknown,Water,37,7.4,PBS,Flow through cell,"Wester, 1996",10.1016/0278-6915(96)00030-0,-1.2042000000000002,169.014008986
Malathion,CCOC(=O)CC(C(=O)OCC)SP(=S)(OC)OC,-4.249,Cadaver,unknown,"epidermis, dermis",dermatomed 1000um,unknown,unknown,0,37,unknown,Ethanol,37,7.4,PBS,Flow through cell,"Wester, 1996",10.1016/0278-6915(96)00030-0,2.1218000000000004,330.036066958
Parathion,CCOP(=S)(Oc1ccc(cc1)[N+](=O)[O-])OCC,-7.28,Cadaver,back,"epidermis, dermis",dermatomed 500um,unknown,unknown,1,37,unknown,unknown,37,unknown,Cell culture medium,Flow through cell,"Wester, 2000",10.1006/taap.2000.9028,3.2711000000000015,291.033030178
Water,O,-5.24,Surgery,scalp,"epidermis, dermis","dermatomed 420um, hydrated 10d",-20,210,0,31,unknown,unknown,31,unknown,Sodium azide,unknown,"Bond, 1988",10.1111/1523-1747.ep12460958,-0.8247,18.010564684
1-Hexanol,CCCCCCO,-4.888,Surgery,scalp,"epidermis, dermis","dermatomed 420um, hydrated 0.25d",-20,210,0,31,unknown,unknown,31,unknown,Sodium azide,unknown,"Bond, 1988",10.1111/1523-1747.ep12460958,1.559,102.104465068
Water,O,-6.426,Cadaver,abdomen,"epidermis, dermis","dermatomed 420um, hydrated 1.75d",-20,210,0,31,unknown,unknown,31,unknown,Sodium azide,unknown,"Bond, 1988",10.1111/1523-1747.ep12460958,-0.8247,18.010564684
Ethanol,CCO,-6.352,Abdominoplasty,abdomen,"epidermis, dermis",fat removed,unknown,unknown,0,35,7.4,PBS,35,7.4,PBS with bovine serum albumin,Franz cell,"Cross, 2003",10.1046/j.1523-1747.2003.12131.x,-0.0014000000000000123,46.041864812
1-Butanol,CCCCO,-5.816,Abdominoplasty,abdomen,"epidermis, dermis",fat removed,unknown,unknown,0,35,7.4,PBS,35,7.4,PBS with bovine serum albumin,Franz cell,"Cross, 2003",10.1046/j.1523-1747.2003.12131.x,0.7787999999999999,74.07316494
1-Decanol,CCCCCCCCCCO,-6.41,Abdominoplasty,abdomen,"epidermis, dermis",fat removed,unknown,unknown,0,35,7.4,PBS,35,7.4,PBS with bovine serum albumin,Franz cell,"Cross, 2003",10.1046/j.1523-1747.2003.12131.x,3.119400000000002,158.167065324
1-Hexanol,CCCCCCO,-5.778,Abdominoplasty,abdomen,"epidermis, dermis",fat removed,unknown,unknown,0,35,7.4,PBS,35,7.4,PBS with bovine serum albumin,Franz cell,"Cross, 2003",10.1046/j.1523-1747.2003.12131.x,1.559,102.104465068
1-Octanol,CCCCCCCCO,-5.642,Abdominoplasty,abdomen,"epidermis, dermis",fat removed,unknown,unknown,0,35,7.4,PBS,35,7.4,PBS with bovine serum albumin,Franz cell,"Cross, 2003",10.1046/j.1523-1747.2003.12131.x,2.3392000000000013,130.135765196
Ethanol,CCO,-5.214,Abdominoplasty,abdomen,dermis,heat separation,unknown,unknown,0,35,7.4,PBS,35,7.4,PBS with bovine serum albumin,Franz cell,"Cross, 2003",10.1046/j.1523-1747.2003.12131.x,-0.0014000000000000123,46.041864812
1-Butanol,CCCCO,-5.193,Abdominoplasty,abdomen,dermis,heat separation,unknown,unknown,0,35,7.4,PBS,35,7.4,PBS with bovine serum albumin,Franz cell,"Cross, 2003",10.1046/j.1523-1747.2003.12131.x,0.7787999999999999,74.07316494
1-Decanol,CCCCCCCCCCO,-5.832,Abdominoplasty,abdomen,dermis,heat separation,unknown,unknown,0,35,7.4,PBS,35,7.4,PBS with bovine serum albumin,Franz cell,"Cross, 2003",10.1046/j.1523-1747.2003.12131.x,3.119400000000002,158.167065324
1-Hexanol,CCCCCCO,-5.637,Abdominoplasty,abdomen,dermis,heat separation,unknown,unknown,0,35,7.4,PBS,35,7.4,PBS with bovine serum albumin,Franz cell,"Cross, 2003",10.1046/j.1523-1747.2003.12131.x,1.559,102.104465068
1-Octanol,CCCCCCCCO,-5.764,Abdominoplasty,abdomen,dermis,heat separation,unknown,unknown,0,35,7.4,PBS,35,7.4,PBS with bovine serum albumin,Franz cell,"Cross, 2003",10.1046/j.1523-1747.2003.12131.x,2.3392000000000013,130.135765196
2-Amino-4-Nitrophenol,[O-][N+](=O)c1ccc(c(c1)N)O,-6.737,Cadaver,abdomen,epidermis,heat separation,4,28,0,32,unknown,Water,32,unknown,NaCl solution,Glass diffusion cell,"Bronaugh, 1984",10.1111/1523-1747.ep12263302,0.8825999999999998,154.037842052
4-Amino-2-Nitrophenol,Nc1ccc(c(c1)[N+](=O)[O-])O,-6.109,Cadaver,abdomen,epidermis,heat separation,4,28,0,32,unknown,Water,32,unknown,NaCl solution,Glass diffusion cell,"Bronaugh, 1984",10.1111/1523-1747.ep12263302,0.8825999999999998,154.037842052
1-Butanol,CCCCO,-4.703,Abdominoplasty,abdomen,epidermis without stratum corneum,tape-stripped,-20,unknown,0,unknown,unknown,unknown,37,unknown,unknown,Glass diffusion cell,"Chantasart, 2010",10.1007/s11095-010-0181-z,0.7787999999999999,74.07316494
1-Octanol,CCCCCCCCO,-4.833,Abdominoplasty,abdomen,epidermis without stratum corneum,tape-stripped,-20,unknown,0,unknown,unknown,unknown,37,unknown,unknown,Glass diffusion cell,"Chantasart, 2010",10.1007/s11095-010-0181-z,2.3392000000000013,130.135765196
1-Octyl-2-Pyrrolidone,CCCCCCCCN1CCCC1=O,-4.81,Abdominoplasty,abdomen,epidermis without stratum corneum,tape-stripped,-20,unknown,0,unknown,unknown,unknown,37,unknown,unknown,Glass diffusion cell,"Chantasart, 2010",10.1007/s11095-010-0181-z,2.9693000000000014,197.177964356
1-Octyl-2-Azacycloheptanone,CCCCCCCCN1CCCCCC1=O,-4.674,Abdominoplasty,abdomen,epidermis without stratum corneum,tape-stripped,-20,unknown,0,unknown,unknown,unknown,37,unknown,unknown,Glass diffusion cell,"Chantasart, 2010",10.1007/s11095-010-0181-z,3.749500000000003,225.209264484
Amphetamine,CC(Cc1ccccc1)N,-4.592,Cadaver,thigh,dermis,"heat separation, hydrated",4,unknown,0,unknown,unknown,unknown,unknown,7,Ringer solution,Glass diffusion cell,"Galey, 1976",10.1111/1523-1747.ep12598596,1.5763,135.104799416
Estradiol,Oc1ccc2c(c1)CC[C@@H]1[C@@H]2CC[C@]2([C@H]1CC[C@@H]2O)C,-4.815,Cadaver,thigh,dermis,"heat separation, hydrated",4,unknown,0,unknown,unknown,unknown,unknown,7,Ringer solution,Glass diffusion cell,"Galey, 1976",10.1111/1523-1747.ep12598596,3.609200000000002,272.177630008
Ouabain,OC[C@@]12[C@H](O)C[C@@H](C[C@@]2(O)CCC2C1[C@H](O)C[C@]1([C@]2(O)CC[C@@H]1C1=CC(=O)OC1)C)O[C@@H]1O[C@@H](C)[C@@H]([C@H]([C@H]1O)O)O,-4.83,Cadaver,thigh,dermis,"heat separation, hydrated",4,unknown,0,unknown,unknown,unknown,unknown,7,Ringer solution,Glass diffusion cell,"Galey, 1976",10.1111/1523-1747.ep12598596,-1.5149999999999963,584.2832768479999
Flufenamic acid,OC(=O)c1ccccc1Nc1cccc(c1)C(F)(F)F,-6.201,Abdominoplasty,abdomen,stratum corneum,trypsinisation,-26,180,0,32,7.4,Sorensen buffer,32,7.4,PBS,Franz cell,"Henning, 2008",10.1159/000112958,4.147200000000001,281.06636322
Flufenamic acid,OC(=O)c1ccccc1Nc1cccc(c1)C(F)(F)F,-6.094,Abdominoplasty,abdomen,dermis,heat separation,-26,180,0,32,7.4,Sorensen buffer,32,7.4,PBS,Franz cell,"Henning, 2008",10.1159/000112958,4.147200000000001,281.06636322
Flufenamic acid,OC(=O)c1ccccc1Nc1cccc(c1)C(F)(F)F,-6.111,Abdominoplasty,abdomen,"epidermis, dermis",dermatomed 500um,-26,180,0,32,7.4,Sorensen buffer,32,7.4,PBS,Franz cell,"Henning, 2008",10.1159/000112958,4.147200000000001,281.06636322
L-alanyl-L-tryptophan,OC(=O)[C@H](Cc1c[nH]c2c1cccc2)NC(=O)[C@@H](N)C,-8.637,Abdominoplasty,abdomen,epidermis,heat separation,-20,60,0,35,5.5,HEPES,35,unknown,unknown,Glass diffusion cell,"Krishnan, 2011",10.1002/bip.21520,0.627,275.126991404
Butyl p-aminobenzoate,CCCCOC(=O)c1ccc(cc1)N,-4.41,Cadaver,thigh,"epidermis, dermis without stratum corneum","dermatomed, tape-stripped",4,unknown,0,25,unknown,unknown,25,unknown,unknown,Flow through cell,"Roy, 1993",10.1002/jps.2600821217,2.2257,193.11027872
Methyl p-aminobenzoate,COC(=O)c1ccc(cc1)N,-5.012,Cadaver,thigh,"epidermis, dermis without stratum corneum","dermatomed, tape-stripped",4,unknown,0,25,unknown,unknown,25,unknown,unknown,Flow through cell,"Roy, 1993",10.1002/jps.2600821217,1.0554,151.063328528
1-Pentanol,CCCCCO,-2.778,Cadaver,abdomen,dermis,heat separation,4,unknown,0,25,unknown,unknown,unknown,unknown,Water,Pyrex cell,"Scheuplein, 1971",10.1152/physrev.1971.51.4.702,1.1689,88.088815004
1-Butanol,CCCCO,-6.556,Cadaver,abdomen,dermis,heat separation,4,unknown,1,25,unknown,unknown,unknown,unknown,Water,Pyrex cell,"Scheuplein, 1973",10.1111/1523-1747.ep12723090,0.7787999999999999,74.07316494
1-Butanol,CCCCO,-5.079,Cadaver,abdomen,dermis,heat separation,4,unknown,0,25,unknown,unknown,unknown,unknown,Water,Pyrex cell,"Scheuplein, 1973",10.1111/1523-1747.ep12723090,0.7787999999999999,74.07316494
Ethanol,CCO,-5.711,Cadaver,abdomen,dermis,heat separation,4,unknown,1,25,unknown,unknown,unknown,unknown,Water,Pyrex cell,"Scheuplein, 1973",10.1111/1523-1747.ep12723090,-0.0014000000000000123,46.041864812
Ethanol,CCO,-5.012,Cadaver,abdomen,dermis,heat separation,4,unknown,0,25,unknown,unknown,unknown,unknown,Water,Pyrex cell,"Scheuplein, 1973",10.1111/1523-1747.ep12723090,-0.0014000000000000123,46.041864812
1-Heptanol,CCCCCCCO,-5.158,Cadaver,abdomen,dermis,heat separation,4,unknown,0,25,unknown,unknown,unknown,unknown,Water,Pyrex cell,"Scheuplein, 1973",10.1111/1523-1747.ep12723090,1.9491,116.120115132
1-Heptanol,CCCCCCCO,-7.711,Cadaver,abdomen,dermis,heat separation,4,unknown,1,25,unknown,unknown,unknown,unknown,Water,Pyrex cell,"Scheuplein, 1973",10.1111/1523-1747.ep12723090,1.9491,116.120115132
1-Hexanol,CCCCCCO,-5.255,Cadaver,abdomen,dermis,heat separation,4,unknown,0,25,unknown,unknown,unknown,unknown,Water,Pyrex cell,"Scheuplein, 1973",10.1111/1523-1747.ep12723090,1.559,102.104465068
1-Hexanol,CCCCCCO,-7.012,Cadaver,abdomen,dermis,heat separation,4,unknown,1,25,unknown,unknown,unknown,unknown,Water,Pyrex cell,"Scheuplein, 1973",10.1111/1523-1747.ep12723090,1.559,102.104465068
Methanol,CO,-5.195,Cadaver,abdomen,dermis,heat separation,4,unknown,1,25,unknown,unknown,unknown,unknown,Water,Pyrex cell,"Scheuplein, 1973",10.1111/1523-1747.ep12723090,-0.3915,32.026214748
Methanol,CO,-4.832,Cadaver,abdomen,dermis,heat separation,4,unknown,0,25,unknown,unknown,unknown,unknown,Water,Pyrex cell,"Scheuplein, 1973",10.1111/1523-1747.ep12723090,-0.3915,32.026214748
1-Octanol,CCCCCCCCO,-5.141,Cadaver,abdomen,dermis,heat separation,4,unknown,0,25,unknown,unknown,unknown,unknown,Water,Pyrex cell,"Scheuplein, 1973",10.1111/1523-1747.ep12723090,2.3392000000000013,130.135765196
1-Octanol,CCCCCCCCO,-8.255,Cadaver,abdomen,dermis,heat separation,4,unknown,1,25,unknown,unknown,unknown,unknown,Water,Pyrex cell,"Scheuplein, 1973",10.1111/1523-1747.ep12723090,2.3392000000000013,130.135765196
1-Pentanol,CCCCCO,-5.176,Cadaver,abdomen,dermis,heat separation,4,unknown,0,25,unknown,unknown,unknown,unknown,Water,Pyrex cell,"Scheuplein, 1973",10.1111/1523-1747.ep12723090,1.1689,88.088815004
1-Pentanol,CCCCCO,-6.653,Cadaver,abdomen,dermis,heat separation,4,unknown,1,25,unknown,unknown,unknown,unknown,Water,Pyrex cell,"Scheuplein, 1973",10.1111/1523-1747.ep12723090,1.1689,88.088815004
1-Propanol,CCCO,-5.065,Cadaver,abdomen,dermis,heat separation,4,unknown,0,25,unknown,unknown,unknown,unknown,Water,Pyrex cell,"Scheuplein, 1973",10.1111/1523-1747.ep12723090,0.3887,60.057514876
1-Propanol,CCCO,-6.301,Cadaver,abdomen,dermis,heat separation,4,unknown,1,25,unknown,unknown,unknown,unknown,Water,Pyrex cell,"Scheuplein, 1973",10.1111/1523-1747.ep12723090,0.3887,60.057514876
Fentanyl,CCC(=O)N(c1ccccc1)C1CCN(CC1)CCc1ccccc1,-7.079,Cadaver,thigh,"epidermis, dermis",dermatomed,-20,unknown,0,37,2.88,Citrate-phosphate buffer,37,7.4,unknown,unknown,"Roy, 1990",10.1023/A:1015912932416,4.136700000000004,336.22016351599996
Fentanyl,CCC(=O)N(c1ccccc1)C1CCN(CC1)CCc1ccccc1,-6.442,Cadaver,thigh,"epidermis, dermis",dermatomed,-20,unknown,0,37,5.08,Citrate-phosphate buffer,37,7.4,unknown,unknown,"Roy, 1990",10.1023/A:1015912932416,4.136700000000004,336.22016351599996
Fentanyl,CCC(=O)N(c1ccccc1)C1CCN(CC1)CCc1ccccc1,-5.849,Cadaver,thigh,"epidermis, dermis",dermatomed,-20,unknown,0,37,6.02,Citrate-phosphate buffer,37,7.4,unknown,unknown,"Roy, 1990",10.1023/A:1015912932416,4.136700000000004,336.22016351599996
Fentanyl,CCC(=O)N(c1ccccc1)C1CCN(CC1)CCc1ccccc1,-5.705,Cadaver,thigh,"epidermis, dermis",dermatomed,-20,unknown,0,37,6.95,Citrate-phosphate buffer,37,7.4,unknown,unknown,"Roy, 1990",10.1023/A:1015912932416,4.136700000000004,336.22016351599996
Fentanyl,CCC(=O)N(c1ccccc1)C1CCN(CC1)CCc1ccccc1,-5.452,Cadaver,thigh,"epidermis, dermis",dermatomed,-20,unknown,0,37,7.43,Potassium phosphate buffer,37,7.4,unknown,unknown,"Roy, 1990",10.1023/A:1015912932416,4.136700000000004,336.22016351599996
Fentanyl,CCC(=O)N(c1ccccc1)C1CCN(CC1)CCc1ccccc1,-5.206,Cadaver,thigh,"epidermis, dermis",dermatomed,-20,unknown,0,37,7.95,Potassium phosphate buffer,37,7.4,unknown,unknown,"Roy, 1990",10.1023/A:1015912932416,4.136700000000004,336.22016351599996
Fentanyl,CCC(=O)N(c1ccccc1)C1CCN(CC1)CCc1ccccc1,-5.115,Cadaver,thigh,"epidermis, dermis",dermatomed,-20,unknown,0,37,8.52,Potassium phosphate buffer,37,7.4,unknown,unknown,"Roy, 1990",10.1023/A:1015912932416,4.136700000000004,336.22016351599996
Fentanyl,CCC(=O)N(c1ccccc1)C1CCN(CC1)CCc1ccccc1,-5.013,Cadaver,thigh,"epidermis, dermis",dermatomed,-20,unknown,0,37,9.04,Potassium phosphate buffer,37,7.4,unknown,unknown,"Roy, 1990",10.1023/A:1015912932416,4.136700000000004,336.22016351599996
Fentanyl,CCC(=O)N(c1ccccc1)C1CCN(CC1)CCc1ccccc1,-5.039,Cadaver,thigh,"epidermis, dermis",dermatomed,-20,unknown,0,37,9.37,Potassium phosphate buffer,37,7.4,unknown,unknown,"Roy, 1990",10.1023/A:1015912932416,4.136700000000004,336.22016351599996
Sufentanil,COCC1(CCN(CC1)CCc1cccs1)N(c1ccccc1)C(=O)CC,-6.894,Cadaver,thigh,"epidermis, dermis",dermatomed,-20,unknown,0,37,2.88,Citrate-phosphate buffer,37,7.4,unknown,unknown,"Roy, 1990",10.1023/A:1015912932416,4.214800000000004,386.20279919999996
Sufentanil,COCC1(CCN(CC1)CCc1cccs1)N(c1ccccc1)C(=O)CC,-6.158,Cadaver,thigh,"epidermis, dermis",dermatomed,-20,unknown,0,37,5.08,Citrate-phosphate buffer,37,7.4,unknown,unknown,"Roy, 1990",10.1023/A:1015912932416,4.214800000000004,386.20279919999996
Sufentanil,COCC1(CCN(CC1)CCc1cccs1)N(c1ccccc1)C(=O)CC,-5.764,Cadaver,thigh,"epidermis, dermis",dermatomed,-20,unknown,0,37,6.02,Citrate-phosphate buffer,37,7.4,unknown,unknown,"Roy, 1990",10.1023/A:1015912932416,4.214800000000004,386.20279919999996
Sufentanil,COCC1(CCN(CC1)CCc1cccs1)N(c1ccccc1)C(=O)CC,-5.552,Cadaver,thigh,"epidermis, dermis",dermatomed,-20,unknown,0,37,6.95,Citrate-phosphate buffer,37,7.4,unknown,unknown,"Roy, 1990",10.1023/A:1015912932416,4.214800000000004,386.20279919999996
Sufentanil,COCC1(CCN(CC1)CCc1cccs1)N(c1ccccc1)C(=O)CC,-5.36,Cadaver,thigh,"epidermis, dermis",dermatomed,-20,unknown,0,37,7.43,Potassium phosphate buffer,37,7.4,unknown,unknown,"Roy, 1990",10.1023/A:1015912932416,4.214800000000004,386.20279919999996
Sufentanil,COCC1(CCN(CC1)CCc1cccs1)N(c1ccccc1)C(=O)CC,-5.193,Cadaver,thigh,"epidermis, dermis",dermatomed,-20,unknown,0,37,7.95,Potassium phosphate buffer,37,7.4,unknown,unknown,"Roy, 1990",10.1023/A:1015912932416,4.214800000000004,386.20279919999996
Sufentanil,COCC1(CCN(CC1)CCc1cccs1)N(c1ccccc1)C(=O)CC,-5.082,Cadaver,thigh,"epidermis, dermis",dermatomed,-20,unknown,0,37,8.52,Potassium phosphate buffer,37,7.4,unknown,unknown,"Roy, 1990",10.1023/A:1015912932416,4.214800000000004,386.20279919999996
Sufentanil,COCC1(CCN(CC1)CCc1cccs1)N(c1ccccc1)C(=O)CC,-5.018,Cadaver,thigh,"epidermis, dermis",dermatomed,-20,unknown,0,37,9.04,Potassium phosphate buffer,37,7.4,unknown,unknown,"Roy, 1990",10.1023/A:1015912932416,4.214800000000004,386.20279919999996
Sufentanil,COCC1(CCN(CC1)CCc1cccs1)N(c1ccccc1)C(=O)CC,-5.029,Cadaver,thigh,"epidermis, dermis",dermatomed,-20,unknown,0,37,9.37,Potassium phosphate buffer,37,7.4,unknown,unknown,"Roy, 1990",10.1023/A:1015912932416,4.214800000000004,386.20279919999996
Caffeine,Cn1cnc2c1c(=O)n(C)c(=O)n2C,-7.145,unknown,leg,epidermis,heat separation,unknown,unknown,0,32,unknown,unknown,37,7.4,PBS,Franz cell,"Dias, 1999",10.1016/S0378-5173(99)00067-8,-1.0293,194.08037556
Salicylic acid,OC(=O)c1ccccc1O,-6.216,Cadaver,abdomen,"epidermis, dermis",dermatomed 600um,-80,60,0,32,unknown,Propylene glycol/Water (9:1),unknown,unknown,PBS with ethanol,Franz cell,"Schmook, 2001",10.1016/S0378-5173(00)00665-7,1.0903999999999998,138.031694052
Hydrocortisone,OCC(=O)[C@@]1(O)CC[C@@H]2[C@]1(C)C[C@H](O)[C@H]1[C@H]2CCC2=CC(=O)CC[C@]12C,-9.195,Cadaver,abdomen,"epidermis, dermis",dermatomed 600um,-80,60,0,32,unknown,Propylene glycol,unknown,unknown,PBS with ethanol,Franz cell,"Schmook, 2001",10.1016/S0378-5173(00)00665-7,1.7815999999999996,362.20932406
Clotrimazole,Clc1ccccc1C(n1cncc1)(c1ccccc1)c1ccccc1,-9.255,Cadaver,abdomen,"epidermis, dermis",dermatomed 600um,-80,60,0,32,unknown,Propylene glycol,unknown,unknown,PBS with ethanol,Franz cell,"Schmook, 2001",10.1016/S0378-5173(00)00665-7,5.376700000000004,344.108026224
Terbinafine,CN(Cc1cccc2c1cccc2)CC=CC#CC(C)(C)C,-9.556,Cadaver,abdomen,"epidermis, dermis",dermatomed 600um,-80,60,0,32,unknown,Propylene glycol,unknown,unknown,PBS with ethanol,Franz cell,"Schmook, 2001",10.1016/S0378-5173(00)00665-7,4.877300000000004,291.1986998
Triclosan,Clc1ccc(c(c1)O)Oc1ccc(cc1Cl)Cl,-4.269,Abdominoplasty or mammaplasty,"abdomen, breast","epidermis, dermis",dermatomed 230um,unknown,unknown,0,unknown,unknown,"Ethanol/Water (9:1, v/v)",32,7.3,"Eagle Minimal Essential Medium with Earle's salt, sodium bicarbonate and gentamicin",Flow through cell,"Moss, 2000",10.1016/S0278-6915(99)00164-7,5.144700000000002,287.951162504
Estradiol,Oc1ccc2c(c1)CC[C@@H]1[C@@H]2CC[C@]2([C@H]1CC[C@@H]2O)C,-6.556,Abdominoplasty,abdomen,"epidermis, dermis",dermatomed 500um,4,14,0,32,unknown,"Ethanol/PBS (3:1, v/v)",32,unknown,unknown,unknown,"Pershing, 1993",10.1023/A:1018974131236,3.609200000000002,272.177630008