"Compound name","Smiles","logkp (cm/s)","skin source type","skin source site","used layer","skin preparation","storage temperature (°C)","storage duration (days)","neat","donor/skin surface temperature (°C)","donor pH","donor type","acceptor temperature (°C)","acceptor pH","acceptor type","cell type","reference","DOI","LogP","molecular weight"
Chloroacetonitrile,ClCC#N,-4.561,Cadaver,torso,"epidermis, dermis",dermatomed 250-280um,-20,unknown,0,37,unknown,Water,37,7.4,PBS,Glass diffusion cell,"Trabaris, 2012",10.1002/jat.1657,0.74878,74.987576744
Dibromoacetonitrile,BrC(C#N)Br,-4.326,Cadaver,torso,"epidermis, dermis",dermatomed 250-280um,-20,unknown,0,37,unknown,Water,37,7.4,PBS,Glass diffusion cell,"Trabaris, 2012",10.1002/jat.1657,1.6258800000000002,196.847573232
Dichloroacetonitrile,ClC(C#N)Cl,-4.38,Cadaver,torso,"epidermis, dermis",dermatomed 250-280um,-20,unknown,0,37,unknown,Water,37,7.4,PBS,Glass diffusion cell,"Trabaris, 2012",10.1002/jat.1657,1.31368,108.948604392
Trichloroacetonitrile,N#CC(Cl)(Cl)Cl,-4.604,Cadaver,torso,"epidermis, dermis",dermatomed 250-280um,-20,unknown,0,37,unknown,Water,37,7.4,PBS,Glass diffusion cell,"Trabaris, 2012",10.1002/jat.1657,1.88018,142.90963204
Haloperidol,Fc1ccc(cc1)C(=O)CCCN1CCC(CC1)(O)c1ccc(cc1)Cl,-7.03,Cadaver,abdomen,epidermis,heat separation,-80,unknown,0,37,unknown,unknown,37,unknown,unknown,Franz cell,"Vaddi, 2001",10.1248/cpb.49.1395,4.425600000000004,375.14013487600005
Levosimendan,N#CC(=NNc1ccc(cc1)C1=NNC(=O)C[C@H]1C)C#N,-6.484,Cadaver,abdomen,epidermis,heat separation,unknown,unknown,0,25,5,Acetate solution,25,unknown,unknown,Glass diffusion cell,"Valjakka-Koskela, 2000",10.1016/S0928-0987(00)00120-2,1.3617599999999999,280.107259004
Levosimendan,N#CC(=NNc1ccc(cc1)C1=NNC(=O)C[C@H]1C)C#N,-7.954,Cadaver,abdomen,epidermis,heat separation,unknown,unknown,0,unknown,7.4,PBS,unknown,unknown,unknown,Glass diffusion cell,"Valjakka-Koskela, 2000",10.1016/S0928-0987(00)00120-2,1.3617599999999999,280.107259004
Diethylene glycol mono n-butyl ether acetate,CCCCOCCOCCOC(=O)C,-7.051,Surgery,abdomen,"epidermis, dermis",fat removed,-25,120,0,unknown,unknown,unknown,32,unknown,NaCl solution,Franz cell,"Venier, 2004",10.1016/j.tiv.2004.03.004,1.3828,204.13615912
Dipropylene glycol mono methyl ether,OCC(OCC(OC)C)C,-7.653,Surgery,abdomen,"epidermis, dermis",fat removed,-25,120,0,unknown,unknown,unknown,32,unknown,NaCl solution,Franz cell,"Venier, 2004",10.1016/j.tiv.2004.03.004,0.41869999999999963,148.109944372
Ethylene glycol mono isopropyl ether,OCCOC(C)C,-6.913,Surgery,abdomen,"epidermis, dermis",fat removed,-25,120,0,unknown,unknown,unknown,32,unknown,NaCl solution,Franz cell,"Venier, 2004",10.1016/j.tiv.2004.03.004,0.40369999999999995,104.083729624
Ethylene glycol mono methyl ether acetate,COCCOC(=O)C,-6.299,Surgery,abdomen,"epidermis, dermis",fat removed,-25,120,0,unknown,unknown,unknown,32,unknown,NaCl solution,Franz cell,"Venier, 2004",10.1016/j.tiv.2004.03.004,0.19589999999999996,118.06299418
2-Propoxyethanol,CCCOCCO,-6.543,Surgery,abdomen,"epidermis, dermis",fat removed,-25,120,0,unknown,unknown,unknown,32,unknown,NaCl solution,Franz cell,"Venier, 2004",10.1016/j.tiv.2004.03.004,0.40530000000000005,104.083729624
Diethylene glycol mono n-butyl ether acetate,CCCCOCCOCCOC(=O)C,-7.778,Surgery,abdomen,"epidermis, dermis",fat removed,-25,120,1,unknown,unknown,unknown,32,unknown,NaCl solution,Franz cell,"Venier, 2004",10.1016/j.tiv.2004.03.004,1.3828,204.13615912
Dipropylene glycol mono methyl ether,OCC(OCC(OC)C)C,-7.515,Surgery,abdomen,"epidermis, dermis",fat removed,-25,120,1,unknown,unknown,unknown,32,unknown,NaCl solution,Franz cell,"Venier, 2004",10.1016/j.tiv.2004.03.004,0.41869999999999963,148.109944372
Ethylene glycol mono isopropyl ether,OCCOC(C)C,-7.125,Surgery,abdomen,"epidermis, dermis",fat removed,-25,120,1,unknown,unknown,unknown,32,unknown,NaCl solution,Franz cell,"Venier, 2004",10.1016/j.tiv.2004.03.004,0.40369999999999995,104.083729624
Ethylene glycol mono methyl ether acetate,COCCOC(=O)C,-6.637,Surgery,abdomen,"epidermis, dermis",fat removed,-25,120,1,unknown,unknown,unknown,32,unknown,NaCl solution,Franz cell,"Venier, 2004",10.1016/j.tiv.2004.03.004,0.19589999999999996,118.06299418
2-Propoxyethanol,CCCOCCO,-6.923,Surgery,abdomen,"epidermis, dermis",fat removed,-25,120,1,unknown,unknown,unknown,32,unknown,NaCl solution,Franz cell,"Venier, 2004",10.1016/j.tiv.2004.03.004,0.40530000000000005,104.083729624
Acyclovir,Nc1nc(=O)c2c([nH]1)n(COCCO)cn2,-7.079,Abdominoplasty,abdomen,"epidermis, dermis",fat removed,unknown,unknown,0,unknown,7.4,PBS,unknown,7.4,PBS,Franz cell,"Volpato, 1998",10.1016/S0168-3659(97)00152-1,-1.3318,225.086189212
1-Methoxy-2-Propanol,COCC(O)C,-6.397,Mammaplasty,breast,"epidermis, dermis",dermatomed 330um,-70,unknown,0,unknown,7.4,unknown,32,7.4,"Eagle’s Minimal Essential Medium, sodium hydrogen carbonate, gentamicin",Glass diffusion cell,"Wilkinson, 2002",10.1007/s00420-002-0367-8,0.013600000000000112,90.06807956
2-Butoxyethanol,CCCCOCCO,-5.268,Mammaplasty,breast,"epidermis, dermis",dermatomed 330um,-70,unknown,0,unknown,7.4,unknown,32,7.4,"Eagle’s Minimal Essential Medium, sodium hydrogen carbonate, gentamicin",Glass diffusion cell,"Wilkinson, 2002",10.1007/s00420-002-0367-8,0.7953999999999999,118.099379688
2-Ethoxyethanol,OCCOCC,-5.634,Mammaplasty,breast,"epidermis, dermis",dermatomed 330um,-70,unknown,0,unknown,7.4,unknown,32,7.4,"Eagle’s Minimal Essential Medium, sodium hydrogen carbonate, gentamicin",Glass diffusion cell,"Wilkinson, 2002",10.1007/s00420-002-0367-8,0.01519999999999988,90.06807956
5-Fluorouracil,Fc1c[nH]c(=O)[nH]c1=O,-7.574,Cadaver,abdomen,stratum corneum,"heat separation, hydrated",-20,unknown,0,32,unknown,unknown,32,unknown,Sodium azide,unknown,"Williams, 1992",10.1016/0378-5173(92)90032-W,-0.7977000000000001,130.017855556
Estradiol,Oc1ccc2c(c1)CC[C@@H]1[C@@H]2CC[C@]2([C@H]1CC[C@@H]2O)C,-5.488,Cadaver,abdomen,stratum corneum,"heat separation, hydrated",-20,unknown,0,32,unknown,unknown,32,unknown,Sodium azide,unknown,"Williams, 1992",10.1016/0378-5173(92)90032-W,3.609200000000002,272.177630008
"1,1,1-Trichloropropanone",CC(=O)C(Cl)(Cl)Cl,-5.176,Mammaplasty,breast,"epidermis, dermis",dermatomed 250-280um,-20,unknown,0,40,7,Water,37,7.4,PBS,Glass diffusion cell,"Xu, 2002",10.1006/taap.2002.9494,1.9456,159.924947756
"1,1-Dichloropropanone",ClC(C(=O)C)Cl,-4.923,Mammaplasty,breast,"epidermis, dermis",dermatomed 250-280um,-20,unknown,0,40,7,Water,37,7.4,PBS,Glass diffusion cell,"Xu, 2002",10.1006/taap.2002.9494,1.3791,125.963920108
Bromoacetic acid,OC(=O)CBr,-6.41,Mammaplasty,breast,"epidermis, dermis",dermatomed 250-280um,-20,unknown,1,40,7,Water,37,7.4,unknown,Glass diffusion cell,"Xu, 2002",10.1006/taap.2002.9494,0.46590000000000004,137.931641436
Bromochloroacetic acid,OC(=O)C(Br)Cl,-6.352,Mammaplasty,breast,"epidermis, dermis",dermatomed 250-280um,-20,unknown,1,40,7,Water,37,7.4,unknown,Glass diffusion cell,"Xu, 2002",10.1006/taap.2002.9494,1.0308,171.892669084
Bromodichloromethane,ClC(Br)Cl,-4.301,Mammaplasty,breast,"epidermis, dermis",dermatomed 250-280um,-20,unknown,0,25,7,Water,37,7.4,PBS,Glass diffusion cell,"Xu, 2002",10.1006/taap.2002.9494,2.1425,161.863867492
Bromoform,BrC(Br)Br,-4.234,Mammaplasty,breast,"epidermis, dermis",dermatomed 250-280um,-20,unknown,0,25,7,Water,37,7.4,PBS,Glass diffusion cell,"Xu, 2002",10.1006/taap.2002.9494,2.4547,249.762836332
Chloroacetic acid,OC(=O)CCl,-6.515,Mammaplasty,breast,"epidermis, dermis",dermatomed 250-280um,-20,unknown,1,40,7,Water,37,7.4,unknown,Glass diffusion cell,"Xu, 2002",10.1006/taap.2002.9494,0.3098,93.982157016
Chlorodibromomethane,ClC(Br)Br,-4.255,Mammaplasty,breast,"epidermis, dermis",dermatomed 250-280um,-20,unknown,0,25,7,Water,37,7.4,PBS,Glass diffusion cell,"Xu, 2002",10.1006/taap.2002.9494,2.2986000000000004,205.813351912
Chloroform,ClC(Cl)Cl,-4.352,Mammaplasty,breast,"epidermis, dermis",dermatomed 250-280um,-20,unknown,0,25,7,Water,37,7.4,PBS,Glass diffusion cell,"Xu, 2002",10.1006/taap.2002.9494,1.9864,117.91438307199999
Dibromoacetic acid,BrC(C(=O)O)Br,-6.141,Mammaplasty,breast,"epidermis, dermis",dermatomed 250-280um,-20,unknown,1,40,7,Water,37,7.4,unknown,Glass diffusion cell,"Xu, 2002",10.1006/taap.2002.9494,1.1869,215.842153504
Dichloroacetic acid,ClC(C(=O)O)Cl,-6.278,Mammaplasty,breast,"epidermis, dermis",dermatomed 250-280um,-20,unknown,1,40,7,Water,37,7.4,unknown,Glass diffusion cell,"Xu, 2002",10.1006/taap.2002.9494,0.8747,127.943184664
Trichloroacetic acid,OC(=O)C(Cl)(Cl)Cl,-6.278,Mammaplasty,breast,"epidermis, dermis",dermatomed 250-280um,-20,unknown,1,40,7,Water,37,7.4,unknown,Glass diffusion cell,"Xu, 2002",10.1006/taap.2002.9494,1.4412,161.904212312
2-Naphthol,Oc1ccc2c(c1)cccc2,-4.757,Abdominoplasty,abdomen,epidermis,heat separation,-20,90,0,32,7.4,PBS,32,unknown,PBS with ethanol,Franz cell,"Zhang, 2009",10.1007/s11095-009-9912-4,2.5454,144.057514876
4-Propoxyphenol,CCCOc1ccc(cc1)O,-5.38,Abdominoplasty,abdomen,epidermis,heat separation,-20,90,0,32,7.4,PBS,32,unknown,PBS with ethanol,Franz cell,"Zhang, 2009",10.1007/s11095-009-9912-4,2.1810000000000005,152.083729624
Carvacrol,CC(c1ccc(c(c1)O)C)C,-4.81,Abdominoplasty,abdomen,epidermis,heat separation,-20,90,0,32,7.4,PBS,32,unknown,PBS with ethanol,Franz cell,"Zhang, 2009",10.1007/s11095-009-9912-4,2.824020000000001,150.104465068
Chlorocresol,Cc1c(O)cccc1Cl,-5.0,Abdominoplasty,abdomen,epidermis,heat separation,-20,90,0,32,7.4,PBS,32,unknown,PBS with ethanol,Franz cell,"Zhang, 2009",10.1007/s11095-009-9912-4,2.3540200000000002,142.018542524
Chloroxylenol,Cc1ccc(c(c1C)O)Cl,-4.651,Abdominoplasty,abdomen,epidermis,heat separation,-20,90,0,32,7.4,PBS,32,unknown,PBS with ethanol,Franz cell,"Zhang, 2009",10.1007/s11095-009-9912-4,2.6624400000000015,156.034192588
Methyl 4-hydroxybenzoate,COC(=O)c1ccc(cc1)O,-5.632,Abdominoplasty,abdomen,epidermis,heat separation,-20,90,0,32,7.4,PBS,32,unknown,PBS with ethanol,Franz cell,"Zhang, 2009",10.1007/s11095-009-9912-4,1.1788,152.047344116
Methyl salicylate,COC(=O)c1ccccc1O,-5.0,Abdominoplasty,abdomen,epidermis,heat separation,-20,90,0,32,7.4,PBS,32,unknown,PBS with ethanol,Franz cell,"Zhang, 2009",10.1007/s11095-009-9912-4,1.1787999999999998,152.047344116
o-t-Butylphenol,Oc1ccccc1C(C)(C)C,-4.685,Abdominoplasty,abdomen,epidermis,heat separation,-20,90,0,32,7.4,PBS,32,unknown,PBS with ethanol,Franz cell,"Zhang, 2009",10.1007/s11095-009-9912-4,2.689700000000001,150.104465068
p-n-Butylphenol,CCCCc1ccc(cc1)O,-4.671,Abdominoplasty,abdomen,epidermis,heat separation,-20,90,0,32,7.4,PBS,32,unknown,PBS with ethanol,Franz cell,"Zhang, 2009",10.1007/s11095-009-9912-4,2.7348000000000012,150.104465068
Thymol,Cc1ccc(c(c1)O)C(C)C,-4.77,Abdominoplasty,abdomen,epidermis,heat separation,-20,90,0,32,7.4,PBS,32,unknown,PBS with ethanol,Franz cell,"Zhang, 2009",10.1007/s11095-009-9912-4,2.824020000000001,150.104465068
Water,O,-5.41,Surgery,scalp,"epidermis, dermis","dermatomed 420um, hydrated 0.25d",-20,210,0,31,unknown,unknown,31,unknown,Sodium azide,unknown,"Bond, 1988",10.1111/1523-1747.ep12460958,-0.8247,18.010564684
1-Hexanol,CCCCCCO,-4.859,Surgery,scalp,"epidermis, dermis","dermatomed 420um, hydrated 10d",-20,210,0,31,unknown,unknown,31,unknown,Sodium azide,unknown,"Bond, 1988",10.1111/1523-1747.ep12460958,1.559,102.104465068
Water,O,-6.41,Cadaver,abdomen,"epidermis, dermis",dermatomed 420um,-20,210,0,31,unknown,unknown,31,unknown,Sodium azide,unknown,"Bond, 1988",10.1111/1523-1747.ep12460958,-0.8247,18.010564684
1-Hexanol,CCCCCCO,-5.114,Cadaver,abdomen,"epidermis, dermis",dermatomed 420um,-20,210,0,31,unknown,unknown,31,unknown,Sodium azide,unknown,"Bond, 1988",10.1111/1523-1747.ep12460958,1.559,102.104465068
Acyclovir,Nc1nc(=O)c2c([nH]1)n(COCCO)cn2,-7.778,Abdominoplasty,abdomen,"epidermis, dermis",fat removed,unknown,unknown,0,unknown,3,Citro-phosphate-buffer,unknown,7.4,PBS,Franz cell,"Volpato, 1998",10.1016/S0168-3659(97)00152-1,-1.3318,225.086189212
Betamethasone-17-valerate,CCCCC(=O)OC1(C(C)CC2C1(C)CC(O)C1(C2CCC2=CC(=O)C=CC12C)F)C(=O)CO,-5.525,Mammaplasty or cadaver,"abdomen, thigh, breast","epidermis, dermis",dermatomed 500um,4,4,0,37,4.5,Acetate solution,37,4.5,Acetate solution,Glass diffusion cell,"Kubota, 1993",10.1002/jps.2600821017,3.636800000000003,476.2574171239999
Bisphenol A diglycidyl ether,CC(c1ccc(cc1)OCC1OC1)(c1ccc(cc1)OCC1OC1)C,-9.875,Mammaplasty,breast,"epidermis, dermis",dermatomed,unknown,0.125,0,32,unknown,unknown,unknown,7.4,Hanks balanced salt solution,Flow through cell,"Boogaard, 2000",10.1080/004982500237488,3.567700000000002,340.16745924799994
Epikote YX4000,Cc1cc(cc(c1OCC1OC1)C)c1cc(C)c(c(c1)C)OCC1OC1,-10.884,Mammaplasty,breast,"epidermis, dermis",dermatomed,unknown,0.125,0,32,unknown,unknown,unknown,7.4,Hanks balanced salt solution,Flow through cell,"Boogaard, 2000",10.1080/004982500237488,4.1424800000000035,354.18310931199994
"1,6-hexanediol diglycidyl ether",C(CCOCC1OC1)CCCOCC1OC1,-7.423,Mammaplasty,breast,"epidermis, dermis",dermatomed,unknown,0.125,0,32,unknown,unknown,unknown,7.4,Hanks balanced salt solution,Flow through cell,"Boogaard, 2000",10.1080/004982500237488,1.3776,230.151809184
1-Dodecyl glycidyl ether,CCCCCCCCCCCCOCC1OC1,-9.036,Mammaplasty,breast,"epidermis, dermis",dermatomed,unknown,0.125,0,32,unknown,unknown,unknown,7.4,Hanks balanced salt solution,Flow through cell,"Boogaard, 2000",10.1080/004982500237488,4.322700000000004,242.2245802
o-Cresyl glycidyl ether,Cc1ccccc1OCC1CO1,-7.588,Mammaplasty,breast,"epidermis, dermis",dermatomed,unknown,0.125,0,32,unknown,unknown,unknown,7.4,Hanks balanced salt solution,Flow through cell,"Boogaard, 2000",10.1080/004982500237488,1.7726199999999999,164.083729624
Caffeine,Cn1cnc2c1c(=O)n(C)c(=O)n2C,-6.828,Cadaver,abdomen,"epidermis, dermis",dermatomed 350um,unknown,60,0,32,unknown,unknown,unknown,unknown,unknown,Flow through cell,"Bronaugh, 1986",10.1111/j.1365-2133.1986.tb06214.x ,-1.0293,194.08037556
Testosterone,O=C1CC[C@]2(C(=C1)CC[C@@H]1[C@@H]2CC[C@]2([C@H]1CC[C@@H]2O)C)C,-5.73,Cadaver,abdomen,"epidermis, dermis",dermatomed 350um,unknown,60,0,32,unknown,unknown,unknown,unknown,unknown,Flow through cell,"Bronaugh, 1986",10.1111/j.1365-2133.1986.tb06214.x ,3.8792000000000026,288.208930136
Water,O,-6.597,Cadaver,abdomen,epidermis,heat separation,unknown,unknown,0,32,unknown,NaCl solution,32,unknown,NaCl solution,Flow through cell,"Clowes, 1994",10.1016/0887-2333(94)90078-7,-0.8247,18.010564684
Water,O,-6.707,Cadaver,abdomen,"epidermis, dermis",dermatomed 130um,unknown,4,0,32,unknown,NaCl solution,33,unknown,NaCl solution,Flow through cell,"Clowes, 1994",10.1016/0887-2333(94)90078-7,-0.8247,18.010564684
Mannitol,OC[C@H]([C@H]([C@@H]([C@@H](CO)O)O)O)O,-8.158,Cadaver,abdomen,epidermis,heat separation,unknown,unknown,0,32,unknown,NaCl solution,32,unknown,NaCl solution,Flow through cell,"Clowes, 1994",10.1016/0887-2333(94)90078-7,-3.5853999999999986,182.079038168
Mannitol,OC[C@H]([C@H]([C@@H]([C@@H](CO)O)O)O)O,-7.923,Cadaver,abdomen,"epidermis, dermis",dermatomed 130um,unknown,4,0,32,unknown,NaCl solution,33,unknown,NaCl solution,Flow through cell,"Clowes, 1994",10.1016/0887-2333(94)90078-7,-3.5853999999999986,182.079038168
Chlorpyrifos,CCOP(=S)(Oc1nc(Cl)c(cc1Cl)Cl)OCC,-7.158,Mammaplasty,breast,unknown,unknown,4,1,0,32,unknown,unknown,unknown,unknown,unknown,Flow through cell,"Griffin, 2000",10.1191/096032700678815684,4.7181000000000015,348.92628388199995
Trimethylamine,CN(C)C,-7.284,Abdominoplasty,abdomen,"epidermis, dermis",fat removed,-20,unknown,0,32,unknown,unknown,32,7.3,Hanks balanced salt solution,Flow through cell,"Kenyon, 2004",10.1016/j.fct.2004.05.007,0.17779999999999996,59.073499287999994
Lidocaine,CCN(CC(=O)Nc1c(C)cccc1C)CC,-7.021,Amputated limb,leg,"epidermis, dermis",dermatomed 150um,-14.5,unknown,0,unknown,4.0,"Hydroxypropyl cellulose, chlorbutanol",unknown,unknown,unknown,Flow through cell,"Kushla, 1991",10.1016/0378-5173(91)90387-4,2.5837400000000006,234.173213324
Lidocaine,CCN(CC(=O)Nc1c(C)cccc1C)CC,-6.967,Amputated limb,leg,"epidermis, dermis",dermatomed 150um,-14.5,unknown,0,unknown,6.0,"Hydroxypropyl cellulose, chlorbutanol",unknown,unknown,unknown,Flow through cell,"Kushla, 1991",10.1016/0378-5173(91)90387-4,2.5837400000000006,234.173213324
Lidocaine,CCN(CC(=O)Nc1c(C)cccc1C)CC,-5.707,Amputated limb,leg,"epidermis, dermis",dermatomed 150um,-14.5,unknown,0,unknown,7.8,"Hydroxypropyl cellulose, chlorbutanol",unknown,unknown,unknown,Flow through cell,"Kushla, 1991",10.1016/0378-5173(91)90387-4,2.5837400000000006,234.173213324
Lidocaine,CCN(CC(=O)Nc1c(C)cccc1C)CC,-5.53,Amputated limb,leg,"epidermis, dermis",dermatomed 150um,-14.5,unknown,0,unknown,10.0,"Hydroxypropyl cellulose, chlorbutanol",unknown,unknown,unknown,Flow through cell,"Kushla, 1991",10.1016/0378-5173(91)90387-4,2.5837400000000006,234.173213324
2-Ethoxyethanol,OCCOCC,-7.785,Mammaplasty,breast,"epidermis, dermis",dermatomed 330um,unknown,unknown,0,unknown,unknown,Methanol,32,7.3,Cell culture medium,Flow through cell,"Lockley, 2002",10.1006/taap.2002.9373,0.01519999999999988,90.06807956
2-Ethoxyethanol,OCCOCC,-7.687,Mammaplasty,breast,"epidermis, dermis",dermatomed 330um,unknown,unknown,1,unknown,unknown,unknown,32,7.3,Cell culture medium,Flow through cell,"Lockley, 2002",10.1006/taap.2002.9373,0.01519999999999988,90.06807956
Water,O,-6.429,Cadaver,abdomen,"epidermis, dermis",dermatomed 420um,-24,unknown,0,31,unknown,Water,31,unknown,Sodium azide,Flow through cell,"Rigg, 1990",10.1111/1523-1747.ep12874561,-0.8247,18.010564684
5-Fluorouracil,Fc1c[nH]c(=O)[nH]c1=O,-8.015,Cadaver,abdomen,"epidermis, dermis",dermatomed 420um,-24,unknown,0,31,unknown,NaCl solution,31,unknown,Sodium azide,Flow through cell,"Rigg, 1990",10.1111/1523-1747.ep12874561,-0.7977000000000001,130.017855556
2-phenoxyethanol,OCCOc1ccccc1,-6.43,Surgery,"abdomen, leg, breast","epidermis, dermis",dermatomed 330um,unknown,unknown,0,37,unknown,Methanol,37,unknown,Cell culture medium,Flow through cell,"Roper, 1997",10.1016/s0278-6915(97)00109-9,1.0576999999999999,138.06807956
Hydrocortisone,OCC(=O)[C@@]1(O)CC[C@@H]2[C@]1(C)C[C@H](O)[C@H]1[C@H]2CCC2=CC(=O)CC[C@]12C,-7.357,Cadaver,abdomen,"epidermis, dermis",unknown,-30,unknown,0,37,1,unknown,37,unknown,"NaCl, Sodium azide",Flow through cell,"Sznitowska, 2001",10.1016/s0168-3659(01)00443-6,1.7815999999999996,362.20932406
Hydrocortisone,OCC(=O)[C@@]1(O)CC[C@@H]2[C@]1(C)C[C@H](O)[C@H]1[C@H]2CCC2=CC(=O)CC[C@]12C,-7.357,Cadaver,abdomen,"epidermis, dermis",unknown,-30,unknown,0,37,2,"Ethanol, Britton-Robinson buffer",37,unknown,"NaCl, Sodium azide",Flow through cell,"Sznitowska, 2001",10.1016/s0168-3659(01)00443-6,1.7815999999999996,362.20932406
Hydrocortisone,OCC(=O)[C@@]1(O)CC[C@@H]2[C@]1(C)C[C@H](O)[C@H]1[C@H]2CCC2=CC(=O)CC[C@]12C,-7.431,Cadaver,abdomen,"epidermis, dermis",unknown,-30,unknown,0,37,3.5,"Ethanol, Britton-Robinson buffer",37,unknown,"NaCl, Sodium azide",Flow through cell,"Sznitowska, 2001",10.1016/s0168-3659(01)00443-6,1.7815999999999996,362.20932406
Hydrocortisone,OCC(=O)[C@@]1(O)CC[C@@H]2[C@]1(C)C[C@H](O)[C@H]1[C@H]2CCC2=CC(=O)CC[C@]12C,-7.681,Cadaver,abdomen,"epidermis, dermis",unknown,-30,unknown,0,37,6,"Ethanol, Britton-Robinson buffer",37,unknown,"NaCl, Sodium azide",Flow through cell,"Sznitowska, 2001",10.1016/s0168-3659(01)00443-6,1.7815999999999996,362.20932406
Hydrocortisone,OCC(=O)[C@@]1(O)CC[C@@H]2[C@]1(C)C[C@H](O)[C@H]1[C@H]2CCC2=CC(=O)CC[C@]12C,-7.577,Cadaver,abdomen,"epidermis, dermis",unknown,-30,unknown,0,37,10,"Ethanol, Britton-Robinson buffer",37,unknown,"NaCl, Sodium azide",Flow through cell,"Sznitowska, 2001",10.1016/s0168-3659(01)00443-6,1.7815999999999996,362.20932406
Testosterone,O=C1CC[C@]2(C(=C1)CC[C@@H]1[C@@H]2CC[C@]2([C@H]1CC[C@@H]2O)C)C,-5.489,Cadaver,abdomen,"epidermis, dermis",unknown,-30,unknown,0,37,2,PBS,37,unknown,"NaCl, sodium azide, acetone",Flow through cell,"Sznitowska, 2001",10.1016/s0168-3659(01)00443-6,3.8792000000000026,288.208930136