"Compound name","Smiles","logkp (cm/s)","skin source type","skin source site","used layer","skin preparation","storage temperature (°C)","storage duration (days)","neat","donor/skin surface temperature (°C)","donor pH","donor type","acceptor temperature (°C)","acceptor pH","acceptor type","cell type","reference","DOI","LogP","molecular weight"
Ketorolac,OC(=O)C1CCn2c1ccc2C(=O)c1ccccc1,-5.799,Cadaver,unknown,"epidermis, dermis",unknown,unknown,unknown,0,32,7.4,unknown,32,7.4,PBS with gentamycine,Franz cell,"Roy, 1995",10.1002/jps.2600841010 ,2.2910000000000004,255.089543276
1-Butanol,CCCCO,-6.158,Cadaver,abdomen,epidermis,heat separation,unknown,unknown,0,unknown,unknown,unknown,unknown,unknown,unknown,Pyrex cell,"Scheuplein, 1965",10.1038/jid.1965.140,0.7787999999999999,74.07316494
Ethanol,CCO,-6.556,Cadaver,abdomen,epidermis,heat separation,unknown,unknown,0,unknown,unknown,unknown,unknown,unknown,unknown,Pyrex cell,"Scheuplein, 1965",10.1038/jid.1965.140,-0.0014000000000000123,46.041864812
1-Heptanol,CCCCCCCO,-5.051,Cadaver,abdomen,epidermis,heat separation,unknown,unknown,0,unknown,unknown,unknown,unknown,unknown,unknown,Pyrex cell,"Scheuplein, 1965",10.1038/jid.1965.140,1.9491,116.120115132
1-Hexanol,CCCCCCO,-5.442,Cadaver,abdomen,epidermis,heat separation,unknown,unknown,0,unknown,unknown,unknown,unknown,unknown,unknown,Pyrex cell,"Scheuplein, 1965",10.1038/jid.1965.140,1.559,102.104465068
Methanol,CO,-6.556,Cadaver,abdomen,epidermis,heat separation,unknown,unknown,0,unknown,unknown,unknown,unknown,unknown,unknown,Pyrex cell,"Scheuplein, 1965",10.1038/jid.1965.140,-0.3915,32.026214748
1-Octanol,CCCCCCCCO,-4.84,Cadaver,abdomen,epidermis,heat separation,unknown,unknown,0,unknown,unknown,unknown,unknown,unknown,unknown,Pyrex cell,"Scheuplein, 1965",10.1038/jid.1965.140,2.3392000000000013,130.135765196
1-Pentanol,CCCCCO,-5.778,Cadaver,abdomen,epidermis,heat separation,unknown,unknown,0,unknown,unknown,unknown,unknown,unknown,unknown,Pyrex cell,"Scheuplein, 1965",10.1038/jid.1965.140,1.1689,88.088815004
1-Propanol,CCCO,-6.41,Cadaver,abdomen,epidermis,heat separation,unknown,unknown,0,unknown,unknown,unknown,unknown,unknown,unknown,Pyrex cell,"Scheuplein, 1965",10.1038/jid.1965.140,0.3887,60.057514876
"2,3-Butanediol",CC(C(O)C)O,-7.857,unknown,unknown,epidermis,unknown,unknown,unknown,0,30,unknown,unknown,30,unknown,unknown,unknown,"Scheuplein, 1967",10.1038/jid.1967.11,-0.252,90.06807956
Butan-2-one,CCC(=O)C,-5.903,unknown,unknown,epidermis,unknown,unknown,unknown,0,30,unknown,unknown,30,unknown,unknown,unknown,"Scheuplein, 1967",10.1038/jid.1967.11,0.9854,72.057514876
2-Ethoxyethanol,OCCOCC,-7.158,unknown,unknown,epidermis,unknown,unknown,unknown,0,30,unknown,unknown,30,unknown,unknown,unknown,"Scheuplein, 1967",10.1038/jid.1967.11,0.01519999999999988,90.06807956
Diethyl ether,CCOCC,-5.325,unknown,unknown,epidermis,unknown,unknown,unknown,0,30,unknown,unknown,30,unknown,unknown,unknown,"Scheuplein, 1967",10.1038/jid.1967.11,1.0428000000000002,74.07316494
1-Butanol,CCCCO,-6.079,unknown,unknown,epidermis,unknown,unknown,unknown,0,30,unknown,unknown,30,unknown,unknown,unknown,"Scheuplein, 1967",10.1038/jid.1967.11,0.7787999999999999,74.07316494
1-Heptanol,CCCCCCCO,-4.981,unknown,unknown,epidermis,unknown,unknown,unknown,0,30,unknown,unknown,30,unknown,unknown,unknown,"Scheuplein, 1967",10.1038/jid.1967.11,1.9491,116.120115132
1-Propanol,CCCO,-6.326,unknown,unknown,epidermis,unknown,unknown,unknown,0,30,unknown,unknown,30,unknown,unknown,unknown,"Scheuplein, 1967",10.1038/jid.1967.11,0.3887,60.057514876
Aldosterone,OCC(=O)[C@H]1CC[C@@H]2[C@]1(C=O)C[C@H](O)[C@H]1[C@H]2CCC2=CC(=O)CC[C@]12C,-9.079,unknown,unknown,epidermis,unknown,unknown,unknown,0,26,unknown,unknown,26,unknown,unknown,unknown,"Scheuplein, 1969",10.1038/jid.1969.9,1.8456999999999997,360.193673996
Cortexolone,OCC(=O)C1(O)CCC2C1(C)CCC1C2CCC2=CC(=O)CCC12C,-7.681,unknown,unknown,epidermis,unknown,unknown,unknown,0,26,unknown,unknown,26,unknown,unknown,unknown,"Scheuplein, 1969",10.1038/jid.1969.9,2.8108000000000013,346.21440944
Cortexone,OCC(=O)[C@H]1CC[C@@H]2[C@]1(C)CC[C@H]1[C@H]2CCC2=CC(=O)CC[C@]12C,-6.903,unknown,unknown,epidermis,unknown,unknown,unknown,0,26,unknown,unknown,26,unknown,unknown,unknown,"Scheuplein, 1969",10.1038/jid.1969.9,3.6959000000000026,330.21949481999997
Corticosterone,OCC(=O)[C@H]1CC[C@@H]2[C@]1(C)C[C@H](O)[C@H]1[C@H]2CCC2=CC(=O)CC[C@]12C,-7.778,unknown,unknown,epidermis,unknown,unknown,unknown,0,26,unknown,unknown,26,unknown,unknown,unknown,"Scheuplein, 1969",10.1038/jid.1969.9,2.6667000000000014,346.21440944
Cortisone,OCC(=O)[C@@]1(O)CC[C@@H]2[C@]1(C)CC(=O)[C@H]1[C@H]2CCC2=CC(=O)CC[C@]12C,-8.556,unknown,unknown,epidermis,unknown,unknown,unknown,0,26,unknown,unknown,26,unknown,unknown,unknown,"Scheuplein, 1969",10.1038/jid.1969.9,1.9897999999999998,360.193673996
Estradiol,Oc1ccc2c(c1)CC[C@@H]1[C@@H]2CC[C@]2([C@H]1CC[C@@H]2O)C,-7.079,unknown,unknown,epidermis,unknown,unknown,unknown,0,26,unknown,unknown,26,unknown,unknown,unknown,"Scheuplein, 1969",10.1038/jid.1969.9,3.609200000000002,272.177630008
Estriol,Oc1ccc2c(c1)CC[C@@H]1[C@@H]2CC[C@]2([C@H]1C[C@H]([C@@H]2O)O)C,-7.954,unknown,unknown,epidermis,unknown,unknown,unknown,0,26,unknown,unknown,26,unknown,unknown,unknown,"Scheuplein, 1969",10.1038/jid.1969.9,2.580000000000001,288.17254462799997
Estrone,Oc1ccc2c(c1)CC[C@@H]1[C@@H]2CC[C@]2([C@H]1CCC2=O)C,-6.0,unknown,unknown,epidermis,unknown,unknown,unknown,0,26,unknown,unknown,26,unknown,unknown,unknown,"Scheuplein, 1969",10.1038/jid.1969.9,3.817400000000003,270.161979944
Hydrocortisone,OCC(=O)[C@@]1(O)CC[C@@H]2[C@]1(C)C[C@H](O)[C@H]1[C@H]2CCC2=CC(=O)CC[C@]12C,-9.079,unknown,unknown,epidermis,unknown,unknown,unknown,0,26,unknown,unknown,26,unknown,unknown,unknown,"Scheuplein, 1969",10.1038/jid.1969.9,1.7815999999999996,362.20932406
Hydroxypregnenolone,CC(=O)[C@H]1CC[C@@H]2[C@]1(C)CC[C@H]1[C@H]2CC=C2[C@]1(C)CCC(C2)(O)O,-6.778,unknown,unknown,epidermis,unknown,unknown,unknown,0,26,unknown,unknown,26,unknown,unknown,unknown,"Scheuplein, 1969",10.1038/jid.1969.9,3.835300000000004,332.23514488399996
17-Hydroxyprogesterone,O=C1CC[C@]2(C(=C1)CC[C@@H]1[C@@H]2CC[C@]2([C@H]1CC[C@]2(O)C(=O)C)C)C,-6.778,unknown,unknown,epidermis,unknown,unknown,unknown,0,26,unknown,unknown,26,unknown,unknown,unknown,"Scheuplein, 1969",10.1038/jid.1969.9,3.8384000000000027,330.21949481999997
Pregnenolone,O[C@H]1CC[C@]2(C(=CC[C@@H]3[C@@H]2CC[C@]2([C@H]3CC[C@@H]2C(=O)C)C)C1)C,-6.38,unknown,unknown,epidermis,unknown,unknown,unknown,0,26,unknown,unknown,26,unknown,unknown,unknown,"Scheuplein, 1969",10.1038/jid.1969.9,4.515300000000004,316.240230264
Progesterone,O=C1CC[C@]2(C(=C1)CC[C@@H]1[C@@H]2CC[C@]2([C@H]1CC[C@@H]2C(=O)C)C)C,-6.38,unknown,unknown,epidermis,unknown,unknown,unknown,0,26,unknown,unknown,26,unknown,unknown,unknown,"Scheuplein, 1969",10.1038/jid.1969.9,4.723500000000005,314.2245802
Testosterone,O=C1CC[C@]2(C(=C1)CC[C@@H]1[C@@H]2CC[C@]2([C@H]1CC[C@@H]2O)C)C,-6.954,unknown,unknown,epidermis,unknown,unknown,unknown,0,26,unknown,unknown,26,unknown,unknown,unknown,"Scheuplein, 1969",10.1038/jid.1969.9,3.8792000000000026,288.208930136
Ethanol,CCO,-3.653,unknown,unknown,unknown,unknown,unknown,unknown,0,unknown,unknown,unknown,unknown,unknown,unknown,unknown,"Scheuplein, 1971",10.1152/physrev.1971.51.4.702,-0.0014000000000000123,46.041864812
1-Heptanol,CCCCCCCO,-2.051,unknown,unknown,unknown,unknown,unknown,unknown,0,unknown,unknown,unknown,unknown,unknown,unknown,unknown,"Scheuplein, 1971",10.1152/physrev.1971.51.4.702,1.9491,116.120115132
1-Hexanol,CCCCCCO,-2.442,unknown,unknown,unknown,unknown,unknown,unknown,0,unknown,unknown,unknown,unknown,unknown,unknown,unknown,"Scheuplein, 1971",10.1152/physrev.1971.51.4.702,1.559,102.104465068
Methanol,CO,-3.857,unknown,unknown,unknown,unknown,unknown,unknown,0,unknown,unknown,unknown,unknown,unknown,unknown,unknown,"Scheuplein, 1971",10.1152/physrev.1971.51.4.702,-0.3915,32.026214748
1-Nonanol,CCCCCCCCCO,-1.778,unknown,unknown,unknown,unknown,unknown,unknown,0,unknown,unknown,unknown,unknown,unknown,unknown,unknown,"Scheuplein, 1971",10.1152/physrev.1971.51.4.702,2.7293000000000016,144.15141526
1-Octanol,CCCCCCCCO,-1.84,unknown,unknown,unknown,unknown,unknown,unknown,0,unknown,unknown,unknown,unknown,unknown,unknown,unknown,"Scheuplein, 1971",10.1152/physrev.1971.51.4.702,2.3392000000000013,130.135765196
1-Propanol,CCCO,-3.41,unknown,unknown,unknown,unknown,unknown,unknown,0,unknown,unknown,unknown,unknown,unknown,unknown,unknown,"Scheuplein, 1971",10.1152/physrev.1971.51.4.702,0.3887,60.057514876
1-Butanol,CCCCO,-7.778,Cadaver,abdomen,epidermis,heat separation,4,unknown,1,25,unknown,unknown,unknown,unknown,Water,Pyrex cell,"Scheuplein, 1973",10.1111/1523-1747.ep12723090,0.7787999999999999,74.07316494
1-Butanol,CCCCO,-6.158,Cadaver,abdomen,epidermis,heat separation,4,unknown,0,25,unknown,unknown,unknown,unknown,Water,Pyrex cell,"Scheuplein, 1973",10.1111/1523-1747.ep12723090,0.7787999999999999,74.07316494
1-Decanol,CCCCCCCCCCO,-9.653,Cadaver,abdomen,epidermis,heat separation,4,unknown,1,25,unknown,unknown,unknown,unknown,Water,Pyrex cell,"Scheuplein, 1973",10.1111/1523-1747.ep12723090,3.119400000000002,158.167065324
1-Decanol,CCCCCCCCCCO,-4.653,Cadaver,abdomen,epidermis,heat separation,4,unknown,0,25,unknown,unknown,unknown,unknown,Water,Pyrex cell,"Scheuplein, 1973",10.1111/1523-1747.ep12723090,3.119400000000002,158.167065324
Ethanol,CCO,-6.699,Cadaver,abdomen,epidermis,heat separation,4,unknown,1,25,unknown,unknown,unknown,unknown,Water,Pyrex cell,"Scheuplein, 1973",10.1111/1523-1747.ep12723090,-0.0014000000000000123,46.041864812
Ethanol,CCO,-6.653,Cadaver,abdomen,epidermis,heat separation,4,unknown,0,25,unknown,unknown,unknown,unknown,Water,Pyrex cell,"Scheuplein, 1973",10.1111/1523-1747.ep12723090,-0.0014000000000000123,46.041864812
1-Heptanol,CCCCCCCO,-5.051,Cadaver,abdomen,epidermis,heat separation,4,unknown,0,25,unknown,unknown,unknown,unknown,Water,Pyrex cell,"Scheuplein, 1973",10.1111/1523-1747.ep12723090,1.9491,116.120115132
1-Heptanol,CCCCCCCO,-8.158,Cadaver,abdomen,epidermis,heat separation,4,unknown,1,25,unknown,unknown,unknown,unknown,Water,Pyrex cell,"Scheuplein, 1973",10.1111/1523-1747.ep12723090,1.9491,116.120115132
1-Hexanol,CCCCCCO,-5.442,Cadaver,abdomen,epidermis,heat separation,4,unknown,0,25,unknown,unknown,unknown,unknown,Water,Pyrex cell,"Scheuplein, 1973",10.1111/1523-1747.ep12723090,1.559,102.104465068
1-Hexanol,CCCCCCO,-7.84,Cadaver,abdomen,epidermis,heat separation,4,unknown,1,25,unknown,unknown,unknown,unknown,Water,Pyrex cell,"Scheuplein, 1973",10.1111/1523-1747.ep12723090,1.559,102.104465068
Methanol,CO,-5.539,Cadaver,abdomen,epidermis,heat separation,4,unknown,1,25,unknown,unknown,unknown,unknown,Water,Pyrex cell,"Scheuplein, 1973",10.1111/1523-1747.ep12723090,-0.3915,32.026214748
Methanol,CO,-6.857,Cadaver,abdomen,epidermis,heat separation,4,unknown,0,25,unknown,unknown,unknown,unknown,Water,Pyrex cell,"Scheuplein, 1973",10.1111/1523-1747.ep12723090,-0.3915,32.026214748
1-Nonanol,CCCCCCCCCO,-4.778,Cadaver,abdomen,epidermis,heat separation,4,unknown,0,25,unknown,unknown,unknown,unknown,Water,Pyrex cell,"Scheuplein, 1973",10.1111/1523-1747.ep12723090,2.7293000000000016,144.15141526
1-Nonanol,CCCCCCCCCO,-9.079,Cadaver,abdomen,epidermis,heat separation,4,unknown,1,25,unknown,unknown,unknown,unknown,Water,Pyrex cell,"Scheuplein, 1973",10.1111/1523-1747.ep12723090,2.7293000000000016,144.15141526
1-Octanol,CCCCCCCCO,-4.84,Cadaver,abdomen,epidermis,heat separation,4,unknown,0,25,unknown,unknown,unknown,unknown,Water,Pyrex cell,"Scheuplein, 1973",10.1111/1523-1747.ep12723090,2.3392000000000013,130.135765196
1-Octanol,CCCCCCCCO,-8.556,Cadaver,abdomen,epidermis,heat separation,4,unknown,1,25,unknown,unknown,unknown,unknown,Water,Pyrex cell,"Scheuplein, 1973",10.1111/1523-1747.ep12723090,2.3392000000000013,130.135765196
1-Pentanol,CCCCCO,-5.778,Cadaver,abdomen,epidermis,heat separation,4,unknown,0,25,unknown,unknown,unknown,unknown,Water,Pyrex cell,"Scheuplein, 1973",10.1111/1523-1747.ep12723090,1.1689,88.088815004
1-Pentanol,CCCCCO,-7.849,Cadaver,abdomen,epidermis,heat separation,4,unknown,1,25,unknown,unknown,unknown,unknown,Water,Pyrex cell,"Scheuplein, 1973",10.1111/1523-1747.ep12723090,1.1689,88.088815004
1-Propanol,CCCO,-6.477,Cadaver,abdomen,epidermis,heat separation,4,unknown,0,25,unknown,unknown,unknown,unknown,Water,Pyrex cell,"Scheuplein, 1973",10.1111/1523-1747.ep12723090,0.3887,60.057514876
1-Propanol,CCCO,-7.352,Cadaver,abdomen,epidermis,heat separation,4,unknown,1,25,unknown,unknown,unknown,unknown,Water,Pyrex cell,"Scheuplein, 1973",10.1111/1523-1747.ep12723090,0.3887,60.057514876
Betamethasone-17-valerate,CCCCC(=O)OC1(C(C)CC2C1(C)CC(O)C1(C2CCC2=CC(=O)C=CC12C)F)C(=O)CO,-6.496,unknown,abdomen,dermis,heat separation,-20,unknown,0,25,unknown,unknown,25,unknown,unknown,Glass diffusion cell,"Siddiqui, 1989",10.1007/bf01061455,3.636800000000003,476.2574171239999
Corticosterone,OCC(=O)[C@H]1CC[C@@H]2[C@]1(C)C[C@H](O)[C@H]1[C@H]2CCC2=CC(=O)CC[C@]12C,-8.206,unknown,abdomen,dermis,heat separation,-20,unknown,0,25,unknown,unknown,25,unknown,unknown,Glass diffusion cell,"Siddiqui, 1989",10.1007/bf01061455,2.6667000000000014,346.21440944
Hydrocortisone,OCC(=O)[C@@]1(O)CC[C@@H]2[C@]1(C)C[C@H](O)[C@H]1[C@H]2CCC2=CC(=O)CC[C@]12C,-9.106,unknown,abdomen,dermis,heat separation,-20,unknown,0,25,unknown,unknown,25,unknown,unknown,Glass diffusion cell,"Siddiqui, 1989",10.1007/bf01061455,1.7815999999999996,362.20932406
Prednisolone,OCC(=O)[C@@]1(O)CC[C@@H]2[C@]1(C)C[C@H](O)[C@H]1[C@H]2CCC2=CC(=O)C=C[C@]12C,-7.906,unknown,abdomen,dermis,heat separation,-20,unknown,0,25,unknown,unknown,25,unknown,unknown,Glass diffusion cell,"Siddiqui, 1989",10.1007/bf01061455,1.5575999999999997,360.193673996
Testosterone,O=C1CC[C@]2(C(=C1)CC[C@@H]1[C@@H]2CC[C@]2([C@H]1CC[C@@H]2O)C)C,-6.626,unknown,abdomen,dermis,heat separation,-20,unknown,0,25,unknown,unknown,25,unknown,unknown,Glass diffusion cell,"Siddiqui, 1989",10.1007/bf01061455,3.8792000000000026,288.208930136
Triamcinolone,OCC(=O)[C@@]1(O)[C@H](O)C[C@@H]2[C@]1(C)C[C@H](O)[C@]1([C@H]2CCC2=CC(=O)C=C[C@]12C)F,-8.956,unknown,abdomen,dermis,heat separation,-20,unknown,0,25,unknown,unknown,25,unknown,unknown,Glass diffusion cell,"Siddiqui, 1989",10.1007/bf01061455,0.6204999999999992,394.17916680400003
Triamcinolone acetonide,OCC(=O)[C@@]12OC(O[C@@H]1C[C@@H]1[C@]2(C)C[C@H](O)[C@]2([C@H]1CCC1=CC(=O)C=C[C@]21C)F)(C)C,-8.251,unknown,abdomen,dermis,heat separation,-20,unknown,0,25,unknown,unknown,25,unknown,unknown,Glass diffusion cell,"Siddiqui, 1989",10.1007/bf01061455,2.4188,434.21046693200003
Flurbiprofen,OC(=O)C(c1ccc(c(c1)F)c1ccccc1)C,-5.331,Abdominoplasty,abdomen,epidermis,heat separation,-20,unknown,0,37,7,PBS,37,7.4,PBS,Franz cell,"Swart, 2005",10.1016/j.ijpharm.2005.05.030,3.6808000000000023,244.089957876
Flurbiprofen glucoside,OC1O[C@H](COC(=O)C(c2ccc(c(c2)F)c2ccccc2)C)[C@H]([C@@H]([C@H]1O)O)O,-6.477,Abdominoplasty,abdomen,epidermis,heat separation,-20,unknown,0,37,7,PBS,37,7.4,PBS,Franz cell,"Swart, 2005",10.1016/j.ijpharm.2005.05.030,0.9392999999999996,406.14278129599995
Flurbiprofen mannoside,OC1O[C@H](COC(=O)C(c2ccc(c(c2)F)c2ccccc2)C)[C@H]([C@@H]([C@@H]1O)O)O,-6.935,Abdominoplasty,abdomen,epidermis,heat separation,-20,unknown,0,37,7,PBS,37,7.4,PBS,Franz cell,"Swart, 2005",10.1016/j.ijpharm.2005.05.030,0.9392999999999996,406.14278129599995
Ibuprofen,CC(Cc1ccc(cc1)C(C(=O)O)C)C,-5.503,Abdominoplasty,abdomen,epidermis,heat separation,-20,unknown,0,37,7,PBS,37,7.4,PBS,Franz cell,"Swart, 2005",10.1016/j.ijpharm.2005.05.030,3.073200000000001,206.130679816
Ibuprofen glucoside,CC(Cc1ccc(cc1)C(C(=O)OC[C@H]1OC(O)[C@@H]([C@H]([C@@H]1O)O)O)C)C,-6.945,Abdominoplasty,abdomen,epidermis,heat separation,-20,unknown,0,37,7,PBS,37,7.4,PBS,Franz cell,"Swart, 2005",10.1016/j.ijpharm.2005.05.030,0.3316999999999999,368.1835032359999
Ibuprofen mannoside,CC(Cc1ccc(cc1)C(C(=O)OC[C@H]1OC(O)[C@H]([C@H]([C@@H]1O)O)O)C)C,-6.548,Abdominoplasty,abdomen,epidermis,heat separation,-20,unknown,0,37,7,PBS,37,7.4,PBS,Franz cell,"Swart, 2005",10.1016/j.ijpharm.2005.05.030,0.3316999999999999,368.1835032359999
Ketoprofen,OC(=O)C(c1cccc(c1)C(=O)c1ccccc1)C,-6.151,Abdominoplasty,abdomen,epidermis,heat separation,-20,unknown,0,37,7,PBS,37,7.4,PBS,Franz cell,"Swart, 2005",10.1016/j.ijpharm.2005.05.030,3.1057000000000015,254.094294308
Ketoprofen glucoside,OC1O[C@H](COC(=O)C(c2cccc(c2)C(=O)c2ccccc2)C)[C@H]([C@@H]([C@H]1O)O)O,-7.731,Abdominoplasty,abdomen,epidermis,heat separation,-20,unknown,0,37,7,PBS,37,7.4,PBS,Franz cell,"Swart, 2005",10.1016/j.ijpharm.2005.05.030,0.36419999999999947,416.14711772799996
Ketoprofen mannoside,OC1O[C@H](COC(=O)C(c2cccc(c2)C(=O)c2ccccc2)C)[C@H]([C@@H]([C@@H]1O)O)O,-7.594,Abdominoplasty,abdomen,epidermis,heat separation,-20,unknown,0,37,7,PBS,37,7.4,PBS,Franz cell,"Swart, 2005",10.1016/j.ijpharm.2005.05.030,0.36419999999999947,416.14711772799996
Naproxen,COc1ccc2c(c1)ccc(c2)C(C(=O)O)C,-7.218,Abdominoplasty,abdomen,epidermis,heat separation,-20,unknown,0,37,7,PBS,37,7.4,PBS,Franz cell,"Swart, 2005",10.1016/j.ijpharm.2005.05.030,3.036500000000001,230.094294308
Naproxen glucoside,COc1ccc2c(c1)ccc(c2)[C@@H](C(=O)OC[C@H]1OC(O)[C@@H]([C@H]([C@@H]1O)O)O)C,-7.886,Abdominoplasty,abdomen,epidermis,heat separation,-20,unknown,0,37,7,PBS,37,7.4,PBS,Franz cell,"Swart, 2005",10.1016/j.ijpharm.2005.05.030,0.2949999999999992,392.1471177279999
Naproxen mannoside,COc1ccc2c(c1)ccc(c2)[C@@H](C(=O)OC[C@H]1OC(O)[C@H]([C@H]([C@@H]1O)O)O)C,-7.7,Abdominoplasty,abdomen,epidermis,heat separation,-20,unknown,0,37,7,PBS,37,7.4,PBS,Franz cell,"Swart, 2005",10.1016/j.ijpharm.2005.05.030,0.2949999999999992,392.1471177279999
Aspartic acid,OC(=O)CC(C(=O)O)N,-7.432,Cadaver,thigh,"epidermis, dermis",dermatomed 500um,-20,unknown,0,unknown,3.4,NaCl solution,37,7.3,NaCl solution,Glass diffusion cell,"Sznitowska, 1993",10.1016/0378-5173(93)90321-6,-1.1269999999999993,133.037507704
Aspartic acid,OC(=O)CC(C(=O)O)N,-7.585,Cadaver,thigh,"epidermis, dermis",dermatomed 500um,-20,unknown,0,unknown,7.3,NaCl solution,37,7.3,NaCl solution,Glass diffusion cell,"Sznitowska, 1993",10.1016/0378-5173(93)90321-6,-1.1269999999999993,133.037507704
Histidine,N[C@H](C(=O)O)Cc1c[nH]cn1,-7.907,Cadaver,thigh,"epidermis, dermis",dermatomed 500um,-20,unknown,0,unknown,5,NaCl solution,37,7.3,NaCl solution,Glass diffusion cell,"Sznitowska, 1993",10.1016/0378-5173(93)90321-6,-0.6359000000000001,155.069476528
Histidine,N[C@H](C(=O)O)Cc1c[nH]cn1,-7.812,Cadaver,thigh,"epidermis, dermis",dermatomed 500um,-20,unknown,0,unknown,7.3,NaCl solution,37,7.3,NaCl solution,Glass diffusion cell,"Sznitowska, 1993",10.1016/0378-5173(93)90321-6,-0.6359000000000001,155.069476528
Histidine,N[C@H](C(=O)O)Cc1c[nH]cn1,-7.903,Cadaver,thigh,"epidermis, dermis",dermatomed 500um,-20,unknown,0,unknown,8.5,NaCl solution,37,7.3,NaCl solution,Glass diffusion cell,"Sznitowska, 1993",10.1016/0378-5173(93)90321-6,-0.6359000000000001,155.069476528
Lysine,NCCCC[C@@H](C(=O)O)N,-7.328,Cadaver,thigh,"epidermis, dermis",dermatomed 500um,-20,unknown,0,unknown,7.3,NaCl solution,37,7.3,NaCl solution,Glass diffusion cell,"Sznitowska, 1993",10.1016/0378-5173(93)90321-6,-0.4726999999999994,146.105527688
Lysine,NCCCC[C@@H](C(=O)O)N,-6.86,Cadaver,thigh,"epidermis, dermis",dermatomed 500um,-20,unknown,0,unknown,8.9,NaCl solution,37,7.3,NaCl solution,Glass diffusion cell,"Sznitowska, 1993",10.1016/0378-5173(93)90321-6,-0.4726999999999994,146.105527688
Bromochloroacetonitrile,ClC(C#N)Br,-4.352,Cadaver,torso,"epidermis, dermis",dermatomed 250-280um,-20,unknown,0,37,unknown,Water,37,7.4,PBS,Glass diffusion cell,"Trabaris, 2012",10.1002/jat.1657,1.4697799999999999,152.898088812
Chloral hydrate,OC(C(Cl)(Cl)Cl)O,-5.965,Cadaver,torso,"epidermis, dermis",dermatomed 250-280um,-20,unknown,0,37,unknown,Water,37,7.4,PBS,Glass diffusion cell,"Trabaris, 2012",10.1002/jat.1657,0.6672999999999998,163.919862376